V -t * -v 1.0a5 -a 0
A -t * -n 1 -p 0 -o 0x7fffffff -c 30 -a 1
A -t * -h 1 -m 1073741823 -s 0
n -t * -a 0 -s 0 -S UP -v circle -c black -i black
n -t * -a 1 -s 1 -S UP -v circle -c black -i black
n -t * -a 2 -s 2 -S UP -v circle -c black -i black
n -t * -a 3 -s 3 -S UP -v circle -c black -i black
l -t * -s 0 -d 2 -S UP -r 200000000 -D 0.01 -c black
l -t * -s 1 -d 2 -S UP -r 100000000 -D 0.0050000000000000001 -c black
l -t * -s 2 -d 3 -S UP -r 1000000 -D 1 -c black
+ -t 0.1 -s 0 -d 2 -p cbr -e 500 -c 0 -i 0 -a 0 -x {0.0 3.0 0 ------- null}
- -t 0.1 -s 0 -d 2 -p cbr -e 500 -c 0 -i 0 -a 0 -x {0.0 3.0 0 ------- null}
h -t 0.1 -s 0 -d 2 -p cbr -e 500 -c 0 -i 0 -a 0 -x {0.0 3.0 -1 ------- null}
+ -t 0.105 -s 0 -d 2 -p cbr -e 500 -c 0 -i 1 -a 0 -x {0.0 3.0 1 ------- null}
- -t 0.105 -s 0 -d 2 -p cbr -e 500 -c 0 -i 1 -a 0 -x {0.0 3.0 1 ------- null}
h -t 0.105 -s 0 -d 2 -p cbr -e 500 -c 0 -i 1 -a 0 -x {0.0 3.0 -1 ------- null}
+ -t 0.11 -s 0 -d 2 -p cbr -e 500 -c 0 -i 2 -a 0 -x {0.0 3.0 2 ------- null}
- -t 0.11 -s 0 -d 2 -p cbr -e 500 -c 0 -i 2 -a 0 -x {0.0 3.0 2 ------- null}
h -t 0.11 -s 0 -d 2 -p cbr -e 500 -c 0 -i 2 -a 0 -x {0.0 3.0 -1 ------- null}
r -t 0.11002 -s 0 -d 2 -p cbr -e 500 -c 0 -i 0 -a 0 -x {0.0 3.0 0 ------- null}
+ -t 0.11002 -s 2 -d 3 -p cbr -e 500 -c 0 -i 0 -a 0 -x {0.0 3.0 0 ------- null}
- -t 0.11002 -s 2 -d 3 -p cbr -e 500 -c 0 -i 0 -a 0 -x {0.0 3.0 0 ------- null}
h -t 0.11002 -s 2 -d 3 -p cbr -e 500 -c 0 -i 0 -a 0 -x {0.0 3.0 -1 ------- null}
+ -t 0.115 -s 0 -d 2 -p cbr -e 500 -c 0 -i 3 -a 0 -x {0.0 3.0 3 ------- null}
- -t 0.115 -s 0 -d 2 -p cbr -e 500 -c 0 -i 3 -a 0 -x {0.0 3.0 3 ------- null}
h -t 0.115 -s 0 -d 2 -p cbr -e 500 -c 0 -i 3 -a 0 -x {0.0 3.0 -1 ------- null}
r -t 0.11502 -s 0 -d 2 -p cbr -e 500 -c 0 -i 1 -a 0 -x {0.0 3.0 1 ------- null}
+ -t 0.11502 -s 2 -d 3 -p cbr -e 500 -c 0 -i 1 -a 0 -x {0.0 3.0 1 ------- null}
- -t 0.11502 -s 2 -d 3 -p cbr -e 500 -c 0 -i 1 -a 0 -x {0.0 3.0 1 ------- null}
h -t 0.11502 -s 2 -d 3 -p cbr -e 500 -c 0 -i 1 -a 0 -x {0.0 3.0 -1 ------- null}
+ -t 0.12 -s 0 -d 2 -p cbr -e 500 -c 0 -i 4 -a 0 -x {0.0 3.0 4 ------- null}
- -t 0.12 -s 0 -d 2 -p cbr -e 500 -c 0 -i 4 -a 0 -x {0.0 3.0 4 ------- null}
h -t 0.12 -s 0 -d 2 -p cbr -e 500 -c 0 -i 4 -a 0 -x {0.0 3.0 -1 ------- null}
r -t 0.12002 -s 0 -d 2 -p cbr -e 500 -c 0 -i 2 -a 0 -x {0.0 3.0 2 ------- null}
+ -t 0.12002 -s 2 -d 3 -p cbr -e 500 -c 0 -i 2 -a 0 -x {0.0 3.0 2 ------- null}
- -t 0.12002 -s 2 -d 3 -p cbr -e 500 -c 0 -i 2 -a 0 -x {0.0 3.0 2 ------- null}
h -t 0.12002 -s 2 -d 3 -p cbr -e 500 -c 0 -i 2 -a 0 -x {0.0 3.0 -1 ------- null}
+ -t 0.125 -s 0 -d 2 -p cbr -e 500 -c 0 -i 5 -a 0 -x {0.0 3.0 5 ------- null}
- -t 0.125 -s 0 -d 2 -p cbr -e 500 -c 0 -i 5 -a 0 -x {0.0 3.0 5 ------- null}
h -t 0.125 -s 0 -d 2 -p cbr -e 500 -c 0 -i 5 -a 0 -x {0.0 3.0 -1 ------- null}
r -t 0.12502 -s 0 -d 2 -p cbr -e 500 -c 0 -i 3 -a 0 -x {0.0 3.0 3 ------- null}
+ -t 0.12502 -s 2 -d 3 -p cbr -e 500 -c 0 -i 3 -a 0 -x {0.0 3.0 3 ------- null}
- -t 0.12502 -s 2 -d 3 -p cbr -e 500 -c 0 -i 3 -a 0 -x {0.0 3.0 3 ------- null}
h -t 0.12502 -s 2 -d 3 -p cbr -e 500 -c 0 -i 3 -a 0 -x {0.0 3.0 -1 ------- null}
+ -t 0.13 -s 0 -d 2 -p cbr -e 500 -c 0 -i 6 -a 0 -x {0.0 3.0 6 ------- null}
- -t 0.13 -s 0 -d 2 -p cbr -e 500 -c 0 -i 6 -a 0 -x {0.0 3.0 6 ------- null}
h -t 0.13 -s 0 -d 2 -p cbr -e 500 -c 0 -i 6 -a 0 -x {0.0 3.0 -1 ------- null}
r -t 0.13002 -s 0 -d 2 -p cbr -e 500 -c 0 -i 4 -a 0 -x {0.0 3.0 4 ------- null}
+ -t 0.13002 -s 2 -d 3 -p cbr -e 500 -c 0 -i 4 -a 0 -x {0.0 3.0 4 ------- null}
- -t 0.13002 -s 2 -d 3 -p cbr -e 500 -c 0 -i 4 -a 0 -x {0.0 3.0 4 ------- null}
h -t 0.13002 -s 2 -d 3 -p cbr -e 500 -c 0 -i 4 -a 0 -x {0.0 3.0 -1 ------- null}
+ -t 0.135 -s 0 -d 2 -p cbr -e 500 -c 0 -i 7 -a 0 -x {0.0 3.0 7 ------- null}
- -t 0.135 -s 0 -d 2 -p cbr -e 500 -c 0 -i 7 -a 0 -x {0.0 3.0 7 ------- null}
h -t 0.135 -s 0 -d 2 -p cbr -e 500 -c 0 -i 7 -a 0 -x {0.0 3.0 -1 ------- null}
r -t 0.13502 -s 0 -d 2 -p cbr -e 500 -c 0 -i 5 -a 0 -x {0.0 3.0 5 ------- null}
+ -t 0.13502 -s 2 -d 3 -p cbr -e 500 -c 0 -i 5 -a 0 -x {0.0 3.0 5 ------- null}
- -t 0.13502 -s 2 -d 3 -p cbr -e 500 -c 0 -i 5 -a 0 -x {0.0 3.0 5 ------- null}
h -t 0.13502 -s 2 -d 3 -p cbr -e 500 -c 0 -i 5 -a 0 -x {0.0 3.0 -1 ------- null}
+ -t 0.14 -s 0 -d 2 -p cbr -e 500 -c 0 -i 8 -a 0 -x {0.0 3.0 8 ------- null}
- -t 0.14 -s 0 -d 2 -p cbr -e 500 -c 0 -i 8 -a 0 -x {0.0 3.0 8 ------- null}
h -t 0.14 -s 0 -d 2 -p cbr -e 500 -c 0 -i 8 -a 0 -x {0.0 3.0 -1 ------- null}
r -t 0.14002 -s 0 -d 2 -p cbr -e 500 -c 0 -i 6 -a 0 -x {0.0 3.0 6 ------- null}
+ -t 0.14002 -s 2 -d 3 -p cbr -e 500 -c 0 -i 6 -a 0 -x {0.0 3.0 6 ------- null}
- -t 0.14002 -s 2 -d 3 -p cbr -e 500 -c 0 -i 6 -a 0 -x {0.0 3.0 6 ------- null}
h -t 0.14002 -s 2 -d 3 -p cbr -e 500 -c 0 -i 6 -a 0 -x {0.0 3.0 -1 ------- null}
+ -t 0.145 -s 0 -d 2 -p cbr -e 500 -c 0 -i 9 -a 0 -x {0.0 3.0 9 ------- null}
- -t 0.145 -s 0 -d 2 -p cbr -e 500 -c 0 -i 9 -a 0 -x {0.0 3.0 9 ------- null}
h -t 0.145 -s 0 -d 2 -p cbr -e 500 -c 0 -i 9 -a 0 -x {0.0 3.0 -1 ------- null}
r -t 0.14502 -s 0 -d 2 -p cbr -e 500 -c 0 -i 7 -a 0 -x {0.0 3.0 7 ------- null}
+ -t 0.14502 -s 2 -d 3 -p cbr -e 500 -c 0 -i 7 -a 0 -x {0.0 3.0 7 ------- null}
- -t 0.14502 -s 2 -d 3 -p cbr -e 500 -c 0 -i 7 -a 0 -x {0.0 3.0 7 ------- null}
h -t 0.14502 -s 2 -d 3 -p cbr -e 500 -c 0 -i 7 -a 0 -x {0.0 3.0 -1 ------- null}
+ -t 0.15 -s 0 -d 2 -p cbr -e 500 -c 0 -i 10 -a 0 -x {0.0 3.0 10 ------- null}
- -t 0.15 -s 0 -d 2 -p cbr -e 500 -c 0 -i 10 -a 0 -x {0.0 3.0 10 ------- null}
h -t 0.15 -s 0 -d 2 -p cbr -e 500 -c 0 -i 10 -a 0 -x {0.0 3.0 -1 ------- null}
r -t 0.15002 -s 0 -d 2 -p cbr -e 500 -c 0 -i 8 -a 0 -x {0.0 3.0 8 ------- null}
+ -t 0.15002 -s 2 -d 3 -p cbr -e 500 -c 0 -i 8 -a 0 -x {0.0 3.0 8 ------- null}
- -t 0.15002 -s 2 -d 3 -p cbr -e 500 -c 0 -i 8 -a 0 -x {0.0 3.0 8 ------- null}
h -t 0.15002 -s 2 -d 3 -p cbr -e 500 -c 0 -i 8 -a 0 -x {0.0 3.0 -1 ------- null}
+ -t 0.155 -s 0 -d 2 -p cbr -e 500 -c 0 -i 11 -a 0 -x {0.0 3.0 11 ------- null}
- -t 0.155 -s 0 -d 2 -p cbr -e 500 -c 0 -i 11 -a 0 -x {0.0 3.0 11 ------- null}
h -t 0.155 -s 0 -d 2 -p cbr -e 500 -c 0 -i 11 -a 0 -x {0.0 3.0 -1 ------- null}
r -t 0.15502 -s 0 -d 2 -p cbr -e 500 -c 0 -i 9 -a 0 -x {0.0 3.0 9 ------- null}
+ -t 0.15502 -s 2 -d 3 -p cbr -e 500 -c 0 -i 9 -a 0 -x {0.0 3.0 9 ------- null}
- -t 0.15502 -s 2 -d 3 -p cbr -e 500 -c 0 -i 9 -a 0 -x {0.0 3.0 9 ------- null}
h -t 0.15502 -s 2 -d 3 -p cbr -e 500 -c 0 -i 9 -a 0 -x {0.0 3.0 -1 ------- null}
+ -t 0.16 -s 0 -d 2 -p cbr -e 500 -c 0 -i 12 -a 0 -x {0.0 3.0 12 ------- null}
- -t 0.16 -s 0 -d 2 -p cbr -e 500 -c 0 -i 12 -a 0 -x {0.0 3.0 12 ------- null}
h -t 0.16 -s 0 -d 2 -p cbr -e 500 -c 0 -i 12 -a 0 -x {0.0 3.0 -1 ------- null}
r -t 0.16002 -s 0 -d 2 -p cbr -e 500 -c 0 -i 10 -a 0 -x {0.0 3.0 10 ------- null}
+ -t 0.16002 -s 2 -d 3 -p cbr -e 500 -c 0 -i 10 -a 0 -x {0.0 3.0 10 ------- null}
- -t 0.16002 -s 2 -d 3 -p cbr -e 500 -c 0 -i 10 -a 0 -x {0.0 3.0 10 ------- null}
h -t 0.16002 -s 2 -d 3 -p cbr -e 500 -c 0 -i 10 -a 0 -x {0.0 3.0 -1 ------- null}
+ -t 0.165 -s 0 -d 2 -p cbr -e 500 -c 0 -i 13 -a 0 -x {0.0 3.0 13 ------- null}
- -t 0.165 -s 0 -d 2 -p cbr -e 500 -c 0 -i 13 -a 0 -x {0.0 3.0 13 ------- null}
h -t 0.165 -s 0 -d 2 -p cbr -e 500 -c 0 -i 13 -a 0 -x {0.0 3.0 -1 ------- null}
r -t 0.16502 -s 0 -d 2 -p cbr -e 500 -c 0 -i 11 -a 0 -x {0.0 3.0 11 ------- null}
+ -t 0.16502 -s 2 -d 3 -p cbr -e 500 -c 0 -i 11 -a 0 -x {0.0 3.0 11 ------- null}
- -t 0.16502 -s 2 -d 3 -p cbr -e 500 -c 0 -i 11 -a 0 -x {0.0 3.0 11 ------- null}
h -t 0.16502 -s 2 -d 3 -p cbr -e 500 -c 0 -i 11 -a 0 -x {0.0 3.0 -1 ------- null}
+ -t 0.17 -s 0 -d 2 -p cbr -e 500 -c 0 -i 14 -a 0 -x {0.0 3.0 14 ------- null}
- -t 0.17 -s 0 -d 2 -p cbr -e 500 -c 0 -i 14 -a 0 -x {0.0 3.0 14 ------- null}
h -t 0.17 -s 0 -d 2 -p cbr -e 500 -c 0 -i 14 -a 0 -x {0.0 3.0 -1 ------- null}
r -t 0.17002 -s 0 -d 2 -p cbr -e 500 -c 0 -i 12 -a 0 -x {0.0 3.0 12 ------- null}
+ -t 0.17002 -s 2 -d 3 -p cbr -e 500 -c 0 -i 12 -a 0 -x {0.0 3.0 12 ------- null}
- -t 0.17002 -s 2 -d 3 -p cbr -e 500 -c 0 -i 12 -a 0 -x {0.0 3.0 12 ------- null}
h -t 0.17002 -s 2 -d 3 -p cbr -e 500 -c 0 -i 12 -a 0 -x {0.0 3.0 -1 ------- null}
+ -t 0.175 -s 0 -d 2 -p cbr -e 500 -c 0 -i 15 -a 0 -x {0.0 3.0 15 ------- null}
- -t 0.175 -s 0 -d 2 -p cbr -e 500 -c 0 -i 15 -a 0 -x {0.0 3.0 15 ------- null}
h -t 0.175 -s 0 -d 2 -p cbr -e 500 -c 0 -i 15 -a 0 -x {0.0 3.0 -1 ------- null}
r -t 0.17502 -s 0 -d 2 -p cbr -e 500 -c 0 -i 13 -a 0 -x {0.0 3.0 13 ------- null}
+ -t 0.17502 -s 2 -d 3 -p cbr -e 500 -c 0 -i 13 -a 0 -x {0.0 3.0 13 ------- null}
- -t 0.17502 -s 2 -d 3 -p cbr -e 500 -c 0 -i 13 -a 0 -x {0.0 3.0 13 ------- null}
h -t 0.17502 -s 2 -d 3 -p cbr -e 500 -c 0 -i 13 -a 0 -x {0.0 3.0 -1 ------- null}
+ -t 0.18 -s 0 -d 2 -p cbr -e 500 -c 0 -i 16 -a 0 -x {0.0 3.0 16 ------- null}
- -t 0.18 -s 0 -d 2 -p cbr -e 500 -c 0 -i 16 -a 0 -x {0.0 3.0 16 ------- null}
h -t 0.18 -s 0 -d 2 -p cbr -e 500 -c 0 -i 16 -a 0 -x {0.0 3.0 -1 ------- null}
r -t 0.18002 -s 0 -d 2 -p cbr -e 500 -c 0 -i 14 -a 0 -x {0.0 3.0 14 ------- null}
+ -t 0.18002 -s 2 -d 3 -p cbr -e 500 -c 0 -i 14 -a 0 -x {0.0 3.0 14 ------- null}
- -t 0.18002 -s 2 -d 3 -p cbr -e 500 -c 0 -i 14 -a 0 -x {0.0 3.0 14 ------- null}
h -t 0.18002 -s 2 -d 3 -p cbr -e 500 -c 0 -i 14 -a 0 -x {0.0 3.0 -1 ------- null}
+ -t 0.185 -s 0 -d 2 -p cbr -e 500 -c 0 -i 17 -a 0 -x {0.0 3.0 17 ------- null}
- -t 0.185 -s 0 -d 2 -p cbr -e 500 -c 0 -i 17 -a 0 -x {0.0 3.0 17 ------- null}
h -t 0.185 -s 0 -d 2 -p cbr -e 500 -c 0 -i 17 -a 0 -x {0.0 3.0 -1 ------- null}
r -t 0.18502 -s 0 -d 2 -p cbr -e 500 -c 0 -i 15 -a 0 -x {0.0 3.0 15 ------- null}
+ -t 0.18502 -s 2 -d 3 -p cbr -e 500 -c 0 -i 15 -a 0 -x {0.0 3.0 15 ------- null}
- -t 0.18502 -s 2 -d 3 -p cbr -e 500 -c 0 -i 15 -a 0 -x {0.0 3.0 15 ------- null}
h -t 0.18502 -s 2 -d 3 -p cbr -e 500 -c 0 -i 15 -a 0 -x {0.0 3.0 -1 ------- null}
+ -t 0.19 -s 0 -d 2 -p cbr -e 500 -c 0 -i 18 -a 0 -x {0.0 3.0 18 ------- null}
- -t 0.19 -s 0 -d 2 -p cbr -e 500 -c 0 -i 18 -a 0 -x {0.0 3.0 18 ------- null}
h -t 0.19 -s 0 -d 2 -p cbr -e 500 -c 0 -i 18 -a 0 -x {0.0 3.0 -1 ------- null}
r -t 0.19002 -s 0 -d 2 -p cbr -e 500 -c 0 -i 16 -a 0 -x {0.0 3.0 16 ------- null}
+ -t 0.19002 -s 2 -d 3 -p cbr -e 500 -c 0 -i 16 -a 0 -x {0.0 3.0 16 ------- null}
- -t 0.19002 -s 2 -d 3 -p cbr -e 500 -c 0 -i 16 -a 0 -x {0.0 3.0 16 ------- null}
h -t 0.19002 -s 2 -d 3 -p cbr -e 500 -c 0 -i 16 -a 0 -x {0.0 3.0 -1 ------- null}
+ -t 0.195 -s 0 -d 2 -p cbr -e 500 -c 0 -i 19 -a 0 -x {0.0 3.0 19 ------- null}
- -t 0.195 -s 0 -d 2 -p cbr -e 500 -c 0 -i 19 -a 0 -x {0.0 3.0 19 ------- null}
h -t 0.195 -s 0 -d 2 -p cbr -e 500 -c 0 -i 19 -a 0 -x {0.0 3.0 -1 ------- null}
r -t 0.19502 -s 0 -d 2 -p cbr -e 500 -c 0 -i 17 -a 0 -x {0.0 3.0 17 ------- null}
+ -t 0.19502 -s 2 -d 3 -p cbr -e 500 -c 0 -i 17 -a 0 -x {0.0 3.0 17 ------- null}
- -t 0.19502 -s 2 -d 3 -p cbr -e 500 -c 0 -i 17 -a 0 -x {0.0 3.0 17 ------- null}
h -t 0.19502 -s 2 -d 3 -p cbr -e 500 -c 0 -i 17 -a 0 -x {0.0 3.0 -1 ------- null}
+ -t 0.2 -s 1 -d 2 -p cbr -e 210 -c 0 -i 20 -a 0 -x {1.0 3.0 0 ------- null}
- -t 0.2 -s 1 -d 2 -p cbr -e 210 -c 0 -i 20 -a 0 -x {1.0 3.0 0 ------- null}
h -t 0.2 -s 1 -d 2 -p cbr -e 210 -c 0 -i 20 -a 0 -x {1.0 3.0 -1 ------- null}
+ -t 0.2 -s 0 -d 2 -p cbr -e 500 -c 0 -i 21 -a 0 -x {0.0 3.0 20 ------- null}
- -t 0.2 -s 0 -d 2 -p cbr -e 500 -c 0 -i 21 -a 0 -x {0.0 3.0 20 ------- null}
h -t 0.2 -s 0 -d 2 -p cbr -e 500 -c 0 -i 21 -a 0 -x {0.0 3.0 -1 ------- null}
r -t 0.20002 -s 0 -d 2 -p cbr -e 500 -c 0 -i 18 -a 0 -x {0.0 3.0 18 ------- null}
+ -t 0.20002 -s 2 -d 3 -p cbr -e 500 -c 0 -i 18 -a 0 -x {0.0 3.0 18 ------- null}
- -t 0.20002 -s 2 -d 3 -p cbr -e 500 -c 0 -i 18 -a 0 -x {0.0 3.0 18 ------- null}
h -t 0.20002 -s 2 -d 3 -p cbr -e 500 -c 0 -i 18 -a 0 -x {0.0 3.0 -1 ------- null}
+ -t 0.20375 -s 1 -d 2 -p cbr -e 210 -c 0 -i 22 -a 0 -x {1.0 3.0 1 ------- null}
- -t 0.20375 -s 1 -d 2 -p cbr -e 210 -c 0 -i 22 -a 0 -x {1.0 3.0 1 ------- null}
h -t 0.20375 -s 1 -d 2 -p cbr -e 210 -c 0 -i 22 -a 0 -x {1.0 3.0 -1 ------- null}
+ -t 0.205 -s 0 -d 2 -p cbr -e 500 -c 0 -i 23 -a 0 -x {0.0 3.0 21 ------- null}
- -t 0.205 -s 0 -d 2 -p cbr -e 500 -c 0 -i 23 -a 0 -x {0.0 3.0 21 ------- null}
h -t 0.205 -s 0 -d 2 -p cbr -e 500 -c 0 -i 23 -a 0 -x {0.0 3.0 -1 ------- null}
r -t 0.2050168 -s 1 -d 2 -p cbr -e 210 -c 0 -i 20 -a 0 -x {1.0 3.0 0 ------- null}
+ -t 0.2050168 -s 2 -d 3 -p cbr -e 210 -c 0 -i 20 -a 0 -x {1.0 3.0 0 ------- null}
- -t 0.2050168 -s 2 -d 3 -p cbr -e 210 -c 0 -i 20 -a 0 -x {1.0 3.0 0 ------- null}
h -t 0.2050168 -s 2 -d 3 -p cbr -e 210 -c 0 -i 20 -a 0 -x {1.0 3.0 -1 ------- null}
r -t 0.20502 -s 0 -d 2 -p cbr -e 500 -c 0 -i 19 -a 0 -x {0.0 3.0 19 ------- null}
+ -t 0.20502 -s 2 -d 3 -p cbr -e 500 -c 0 -i 19 -a 0 -x {0.0 3.0 19 ------- null}
- -t 0.2066968 -s 2 -d 3 -p cbr -e 500 -c 0 -i 19 -a 0 -x {0.0 3.0 19 ------- null}
h -t 0.2066968 -s 2 -d 3 -p cbr -e 500 -c 0 -i 19 -a 0 -x {0.0 3.0 -1 ------- null}
+ -t 0.2075 -s 1 -d 2 -p cbr -e 210 -c 0 -i 24 -a 0 -x {1.0 3.0 2 ------- null}
- -t 0.2075 -s 1 -d 2 -p cbr -e 210 -c 0 -i 24 -a 0 -x {1.0 3.0 2 ------- null}
h -t 0.2075 -s 1 -d 2 -p cbr -e 210 -c 0 -i 24 -a 0 -x {1.0 3.0 -1 ------- null}
r -t 0.2087668 -s 1 -d 2 -p cbr -e 210 -c 0 -i 22 -a 0 -x {1.0 3.0 1 ------- null}
+ -t 0.2087668 -s 2 -d 3 -p cbr -e 210 -c 0 -i 22 -a 0 -x {1.0 3.0 1 ------- null}
+ -t 0.21 -s 0 -d 2 -p cbr -e 500 -c 0 -i 25 -a 0 -x {0.0 3.0 22 ------- null}
- -t 0.21 -s 0 -d 2 -p cbr -e 500 -c 0 -i 25 -a 0 -x {0.0 3.0 22 ------- null}
h -t 0.21 -s 0 -d 2 -p cbr -e 500 -c 0 -i 25 -a 0 -x {0.0 3.0 -1 ------- null}
r -t 0.21002 -s 0 -d 2 -p cbr -e 500 -c 0 -i 21 -a 0 -x {0.0 3.0 20 ------- null}
+ -t 0.21002 -s 2 -d 3 -p cbr -e 500 -c 0 -i 21 -a 0 -x {0.0 3.0 20 ------- null}
- -t 0.2106968 -s 2 -d 3 -p cbr -e 210 -c 0 -i 22 -a 0 -x {1.0 3.0 1 ------- null}
h -t 0.2106968 -s 2 -d 3 -p cbr -e 210 -c 0 -i 22 -a 0 -x {1.0 3.0 -1 ------- null}
+ -t 0.21125 -s 1 -d 2 -p cbr -e 210 -c 0 -i 26 -a 0 -x {1.0 3.0 3 ------- null}
- -t 0.21125 -s 1 -d 2 -p cbr -e 210 -c 0 -i 26 -a 0 -x {1.0 3.0 3 ------- null}
h -t 0.21125 -s 1 -d 2 -p cbr -e 210 -c 0 -i 26 -a 0 -x {1.0 3.0 -1 ------- null}
- -t 0.2123768 -s 2 -d 3 -p cbr -e 500 -c 0 -i 21 -a 0 -x {0.0 3.0 20 ------- null}
h -t 0.2123768 -s 2 -d 3 -p cbr -e 500 -c 0 -i 21 -a 0 -x {0.0 3.0 -1 ------- null}
r -t 0.2125168 -s 1 -d 2 -p cbr -e 210 -c 0 -i 24 -a 0 -x {1.0 3.0 2 ------- null}
+ -t 0.2125168 -s 2 -d 3 -p cbr -e 210 -c 0 -i 24 -a 0 -x {1.0 3.0 2 ------- null}
+ -t 0.215 -s 1 -d 2 -p cbr -e 210 -c 0 -i 27 -a 0 -x {1.0 3.0 4 ------- null}
- -t 0.215 -s 1 -d 2 -p cbr -e 210 -c 0 -i 27 -a 0 -x {1.0 3.0 4 ------- null}
h -t 0.215 -s 1 -d 2 -p cbr -e 210 -c 0 -i 27 -a 0 -x {1.0 3.0 -1 ------- null}
+ -t 0.215 -s 0 -d 2 -p cbr -e 500 -c 0 -i 28 -a 0 -x {0.0 3.0 23 ------- null}
- -t 0.215 -s 0 -d 2 -p cbr -e 500 -c 0 -i 28 -a 0 -x {0.0 3.0 23 ------- null}
h -t 0.215 -s 0 -d 2 -p cbr -e 500 -c 0 -i 28 -a 0 -x {0.0 3.0 -1 ------- null}
r -t 0.21502 -s 0 -d 2 -p cbr -e 500 -c 0 -i 23 -a 0 -x {0.0 3.0 21 ------- null}
+ -t 0.21502 -s 2 -d 3 -p cbr -e 500 -c 0 -i 23 -a 0 -x {0.0 3.0 21 ------- null}
r -t 0.2162668 -s 1 -d 2 -p cbr -e 210 -c 0 -i 26 -a 0 -x {1.0 3.0 3 ------- null}
+ -t 0.2162668 -s 2 -d 3 -p cbr -e 210 -c 0 -i 26 -a 0 -x {1.0 3.0 3 ------- null}
- -t 0.2163768 -s 2 -d 3 -p cbr -e 210 -c 0 -i 24 -a 0 -x {1.0 3.0 2 ------- null}
h -t 0.2163768 -s 2 -d 3 -p cbr -e 210 -c 0 -i 24 -a 0 -x {1.0 3.0 -1 ------- null}
- -t 0.2180568 -s 2 -d 3 -p cbr -e 500 -c 0 -i 23 -a 0 -x {0.0 3.0 21 ------- null}
h -t 0.2180568 -s 2 -d 3 -p cbr -e 500 -c 0 -i 23 -a 0 -x {0.0 3.0 -1 ------- null}
+ -t 0.21875 -s 1 -d 2 -p cbr -e 210 -c 0 -i 29 -a 0 -x {1.0 3.0 5 ------- null}
- -t 0.21875 -s 1 -d 2 -p cbr -e 210 -c 0 -i 29 -a 0 -x {1.0 3.0 5 ------- null}
h -t 0.21875 -s 1 -d 2 -p cbr -e 210 -c 0 -i 29 -a 0 -x {1.0 3.0 -1 ------- null}
+ -t 0.22 -s 0 -d 2 -p cbr -e 500 -c 0 -i 30 -a 0 -x {0.0 3.0 24 ------- null}
- -t 0.22 -s 0 -d 2 -p cbr -e 500 -c 0 -i 30 -a 0 -x {0.0 3.0 24 ------- null}
h -t 0.22 -s 0 -d 2 -p cbr -e 500 -c 0 -i 30 -a 0 -x {0.0 3.0 -1 ------- null}
r -t 0.2200168 -s 1 -d 2 -p cbr -e 210 -c 0 -i 27 -a 0 -x {1.0 3.0 4 ------- null}
+ -t 0.2200168 -s 2 -d 3 -p cbr -e 210 -c 0 -i 27 -a 0 -x {1.0 3.0 4 ------- null}
r -t 0.22002 -s 0 -d 2 -p cbr -e 500 -c 0 -i 25 -a 0 -x {0.0 3.0 22 ------- null}
+ -t 0.22002 -s 2 -d 3 -p cbr -e 500 -c 0 -i 25 -a 0 -x {0.0 3.0 22 ------- null}
- -t 0.2220568 -s 2 -d 3 -p cbr -e 210 -c 0 -i 26 -a 0 -x {1.0 3.0 3 ------- null}
h -t 0.2220568 -s 2 -d 3 -p cbr -e 210 -c 0 -i 26 -a 0 -x {1.0 3.0 -1 ------- null}
+ -t 0.2225 -s 1 -d 2 -p cbr -e 210 -c 0 -i 31 -a 0 -x {1.0 3.0 6 ------- null}
- -t 0.2225 -s 1 -d 2 -p cbr -e 210 -c 0 -i 31 -a 0 -x {1.0 3.0 6 ------- null}
h -t 0.2225 -s 1 -d 2 -p cbr -e 210 -c 0 -i 31 -a 0 -x {1.0 3.0 -1 ------- null}
- -t 0.2237368 -s 2 -d 3 -p cbr -e 210 -c 0 -i 27 -a 0 -x {1.0 3.0 4 ------- null}
h -t 0.2237368 -s 2 -d 3 -p cbr -e 210 -c 0 -i 27 -a 0 -x {1.0 3.0 -1 ------- null}
r -t 0.2237668 -s 1 -d 2 -p cbr -e 210 -c 0 -i 29 -a 0 -x {1.0 3.0 5 ------- null}
+ -t 0.2237668 -s 2 -d 3 -p cbr -e 210 -c 0 -i 29 -a 0 -x {1.0 3.0 5 ------- null}
+ -t 0.225 -s 0 -d 2 -p cbr -e 500 -c 0 -i 32 -a 0 -x {0.0 3.0 25 ------- null}
- -t 0.225 -s 0 -d 2 -p cbr -e 500 -c 0 -i 32 -a 0 -x {0.0 3.0 25 ------- null}
h -t 0.225 -s 0 -d 2 -p cbr -e 500 -c 0 -i 32 -a 0 -x {0.0 3.0 -1 ------- null}
r -t 0.22502 -s 0 -d 2 -p cbr -e 500 -c 0 -i 28 -a 0 -x {0.0 3.0 23 ------- null}
+ -t 0.22502 -s 2 -d 3 -p cbr -e 500 -c 0 -i 28 -a 0 -x {0.0 3.0 23 ------- null}
- -t 0.2254168 -s 2 -d 3 -p cbr -e 500 -c 0 -i 25 -a 0 -x {0.0 3.0 22 ------- null}
h -t 0.2254168 -s 2 -d 3 -p cbr -e 500 -c 0 -i 25 -a 0 -x {0.0 3.0 -1 ------- null}
+ -t 0.22625 -s 1 -d 2 -p cbr -e 210 -c 0 -i 33 -a 0 -x {1.0 3.0 7 ------- null}
- -t 0.22625 -s 1 -d 2 -p cbr -e 210 -c 0 -i 33 -a 0 -x {1.0 3.0 7 ------- null}
h -t 0.22625 -s 1 -d 2 -p cbr -e 210 -c 0 -i 33 -a 0 -x {1.0 3.0 -1 ------- null}
r -t 0.2275168 -s 1 -d 2 -p cbr -e 210 -c 0 -i 31 -a 0 -x {1.0 3.0 6 ------- null}
+ -t 0.2275168 -s 2 -d 3 -p cbr -e 210 -c 0 -i 31 -a 0 -x {1.0 3.0 6 ------- null}
- -t 0.2294168 -s 2 -d 3 -p cbr -e 210 -c 0 -i 29 -a 0 -x {1.0 3.0 5 ------- null}
h -t 0.2294168 -s 2 -d 3 -p cbr -e 210 -c 0 -i 29 -a 0 -x {1.0 3.0 -1 ------- null}
+ -t 0.23 -s 1 -d 2 -p cbr -e 210 -c 0 -i 34 -a 0 -x {1.0 3.0 8 ------- null}
- -t 0.23 -s 1 -d 2 -p cbr -e 210 -c 0 -i 34 -a 0 -x {1.0 3.0 8 ------- null}
h -t 0.23 -s 1 -d 2 -p cbr -e 210 -c 0 -i 34 -a 0 -x {1.0 3.0 -1 ------- null}
+ -t 0.23 -s 0 -d 2 -p cbr -e 500 -c 0 -i 35 -a 0 -x {0.0 3.0 26 ------- null}
- -t 0.23 -s 0 -d 2 -p cbr -e 500 -c 0 -i 35 -a 0 -x {0.0 3.0 26 ------- null}
h -t 0.23 -s 0 -d 2 -p cbr -e 500 -c 0 -i 35 -a 0 -x {0.0 3.0 -1 ------- null}
r -t 0.23002 -s 0 -d 2 -p cbr -e 500 -c 0 -i 30 -a 0 -x {0.0 3.0 24 ------- null}
+ -t 0.23002 -s 2 -d 3 -p cbr -e 500 -c 0 -i 30 -a 0 -x {0.0 3.0 24 ------- null}
- -t 0.2310968 -s 2 -d 3 -p cbr -e 500 -c 0 -i 28 -a 0 -x {0.0 3.0 23 ------- null}
h -t 0.2310968 -s 2 -d 3 -p cbr -e 500 -c 0 -i 28 -a 0 -x {0.0 3.0 -1 ------- null}
r -t 0.2312668 -s 1 -d 2 -p cbr -e 210 -c 0 -i 33 -a 0 -x {1.0 3.0 7 ------- null}
+ -t 0.2312668 -s 2 -d 3 -p cbr -e 210 -c 0 -i 33 -a 0 -x {1.0 3.0 7 ------- null}
+ -t 0.23375 -s 1 -d 2 -p cbr -e 210 -c 0 -i 36 -a 0 -x {1.0 3.0 9 ------- null}
- -t 0.23375 -s 1 -d 2 -p cbr -e 210 -c 0 -i 36 -a 0 -x {1.0 3.0 9 ------- null}
h -t 0.23375 -s 1 -d 2 -p cbr -e 210 -c 0 -i 36 -a 0 -x {1.0 3.0 -1 ------- null}
+ -t 0.235 -s 0 -d 2 -p cbr -e 500 -c 0 -i 37 -a 0 -x {0.0 3.0 27 ------- null}
- -t 0.235 -s 0 -d 2 -p cbr -e 500 -c 0 -i 37 -a 0 -x {0.0 3.0 27 ------- null}
h -t 0.235 -s 0 -d 2 -p cbr -e 500 -c 0 -i 37 -a 0 -x {0.0 3.0 -1 ------- null}
r -t 0.2350168 -s 1 -d 2 -p cbr -e 210 -c 0 -i 34 -a 0 -x {1.0 3.0 8 ------- null}
+ -t 0.2350168 -s 2 -d 3 -p cbr -e 210 -c 0 -i 34 -a 0 -x {1.0 3.0 8 ------- null}
r -t 0.23502 -s 0 -d 2 -p cbr -e 500 -c 0 -i 32 -a 0 -x {0.0 3.0 25 ------- null}
+ -t 0.23502 -s 2 -d 3 -p cbr -e 500 -c 0 -i 32 -a 0 -x {0.0 3.0 25 ------- null}
- -t 0.2350968 -s 2 -d 3 -p cbr -e 210 -c 0 -i 31 -a 0 -x {1.0 3.0 6 ------- null}
h -t 0.2350968 -s 2 -d 3 -p cbr -e 210 -c 0 -i 31 -a 0 -x {1.0 3.0 -1 ------- null}
- -t 0.2367768 -s 2 -d 3 -p cbr -e 500 -c 0 -i 30 -a 0 -x {0.0 3.0 24 ------- null}
h -t 0.2367768 -s 2 -d 3 -p cbr -e 500 -c 0 -i 30 -a 0 -x {0.0 3.0 -1 ------- null}
+ -t 0.2375 -s 1 -d 2 -p cbr -e 210 -c 0 -i 38 -a 0 -x {1.0 3.0 10 ------- null}
- -t 0.2375 -s 1 -d 2 -p cbr -e 210 -c 0 -i 38 -a 0 -x {1.0 3.0 10 ------- null}
h -t 0.2375 -s 1 -d 2 -p cbr -e 210 -c 0 -i 38 -a 0 -x {1.0 3.0 -1 ------- null}
r -t 0.2387668 -s 1 -d 2 -p cbr -e 210 -c 0 -i 36 -a 0 -x {1.0 3.0 9 ------- null}
+ -t 0.2387668 -s 2 -d 3 -p cbr -e 210 -c 0 -i 36 -a 0 -x {1.0 3.0 9 ------- null}
+ -t 0.24 -s 0 -d 2 -p cbr -e 500 -c 0 -i 39 -a 0 -x {0.0 3.0 28 ------- null}
- -t 0.24 -s 0 -d 2 -p cbr -e 500 -c 0 -i 39 -a 0 -x {0.0 3.0 28 ------- null}
h -t 0.24 -s 0 -d 2 -p cbr -e 500 -c 0 -i 39 -a 0 -x {0.0 3.0 -1 ------- null}
r -t 0.24002 -s 0 -d 2 -p cbr -e 500 -c 0 -i 35 -a 0 -x {0.0 3.0 26 ------- null}
+ -t 0.24002 -s 2 -d 3 -p cbr -e 500 -c 0 -i 35 -a 0 -x {0.0 3.0 26 ------- null}
- -t 0.2407768 -s 2 -d 3 -p cbr -e 210 -c 0 -i 33 -a 0 -x {1.0 3.0 7 ------- null}
h -t 0.2407768 -s 2 -d 3 -p cbr -e 210 -c 0 -i 33 -a 0 -x {1.0 3.0 -1 ------- null}
+ -t 0.24125 -s 1 -d 2 -p cbr -e 210 -c 0 -i 40 -a 0 -x {1.0 3.0 11 ------- null}
- -t 0.24125 -s 1 -d 2 -p cbr -e 210 -c 0 -i 40 -a 0 -x {1.0 3.0 11 ------- null}
h -t 0.24125 -s 1 -d 2 -p cbr -e 210 -c 0 -i 40 -a 0 -x {1.0 3.0 -1 ------- null}
- -t 0.2424568 -s 2 -d 3 -p cbr -e 210 -c 0 -i 34 -a 0 -x {1.0 3.0 8 ------- null}
h -t 0.2424568 -s 2 -d 3 -p cbr -e 210 -c 0 -i 34 -a 0 -x {1.0 3.0 -1 ------- null}
r -t 0.2425168 -s 1 -d 2 -p cbr -e 210 -c 0 -i 38 -a 0 -x {1.0 3.0 10 ------- null}
+ -t 0.2425168 -s 2 -d 3 -p cbr -e 210 -c 0 -i 38 -a 0 -x {1.0 3.0 10 ------- null}
- -t 0.2441368 -s 2 -d 3 -p cbr -e 500 -c 0 -i 32 -a 0 -x {0.0 3.0 25 ------- null}
h -t 0.2441368 -s 2 -d 3 -p cbr -e 500 -c 0 -i 32 -a 0 -x {0.0 3.0 -1 ------- null}
+ -t 0.245 -s 1 -d 2 -p cbr -e 210 -c 0 -i 41 -a 0 -x {1.0 3.0 12 ------- null}
- -t 0.245 -s 1 -d 2 -p cbr -e 210 -c 0 -i 41 -a 0 -x {1.0 3.0 12 ------- null}
h -t 0.245 -s 1 -d 2 -p cbr -e 210 -c 0 -i 41 -a 0 -x {1.0 3.0 -1 ------- null}
+ -t 0.245 -s 0 -d 2 -p cbr -e 500 -c 0 -i 42 -a 0 -x {0.0 3.0 29 ------- null}
- -t 0.245 -s 0 -d 2 -p cbr -e 500 -c 0 -i 42 -a 0 -x {0.0 3.0 29 ------- null}
h -t 0.245 -s 0 -d 2 -p cbr -e 500 -c 0 -i 42 -a 0 -x {0.0 3.0 -1 ------- null}
r -t 0.24502 -s 0 -d 2 -p cbr -e 500 -c 0 -i 37 -a 0 -x {0.0 3.0 27 ------- null}
+ -t 0.24502 -s 2 -d 3 -p cbr -e 500 -c 0 -i 37 -a 0 -x {0.0 3.0 27 ------- null}
r -t 0.2462668 -s 1 -d 2 -p cbr -e 210 -c 0 -i 40 -a 0 -x {1.0 3.0 11 ------- null}
+ -t 0.2462668 -s 2 -d 3 -p cbr -e 210 -c 0 -i 40 -a 0 -x {1.0 3.0 11 ------- null}
- -t 0.2481368 -s 2 -d 3 -p cbr -e 210 -c 0 -i 36 -a 0 -x {1.0 3.0 9 ------- null}
h -t 0.2481368 -s 2 -d 3 -p cbr -e 210 -c 0 -i 36 -a 0 -x {1.0 3.0 -1 ------- null}
+ -t 0.24875 -s 1 -d 2 -p cbr -e 210 -c 0 -i 43 -a 0 -x {1.0 3.0 13 ------- null}
- -t 0.24875 -s 1 -d 2 -p cbr -e 210 -c 0 -i 43 -a 0 -x {1.0 3.0 13 ------- null}
h -t 0.24875 -s 1 -d 2 -p cbr -e 210 -c 0 -i 43 -a 0 -x {1.0 3.0 -1 ------- null}
- -t 0.2498168 -s 2 -d 3 -p cbr -e 500 -c 0 -i 35 -a 0 -x {0.0 3.0 26 ------- null}
h -t 0.2498168 -s 2 -d 3 -p cbr -e 500 -c 0 -i 35 -a 0 -x {0.0 3.0 -1 ------- null}
+ -t 0.25 -s 0 -d 2 -p cbr -e 500 -c 0 -i 44 -a 0 -x {0.0 3.0 30 ------- null}
- -t 0.25 -s 0 -d 2 -p cbr -e 500 -c 0 -i 44 -a 0 -x {0.0 3.0 30 ------- null}
h -t 0.25 -s 0 -d 2 -p cbr -e 500 -c 0 -i 44 -a 0 -x {0.0 3.0 -1 ------- null}
r -t 0.2500168 -s 1 -d 2 -p cbr -e 210 -c 0 -i 41 -a 0 -x {1.0 3.0 12 ------- null}
+ -t 0.2500168 -s 2 -d 3 -p cbr -e 210 -c 0 -i 41 -a 0 -x {1.0 3.0 12 ------- null}
r -t 0.25002 -s 0 -d 2 -p cbr -e 500 -c 0 -i 39 -a 0 -x {0.0 3.0 28 ------- null}
+ -t 0.25002 -s 2 -d 3 -p cbr -e 500 -c 0 -i 39 -a 0 -x {0.0 3.0 28 ------- null}
+ -t 0.2525 -s 1 -d 2 -p cbr -e 210 -c 0 -i 45 -a 0 -x {1.0 3.0 14 ------- null}
- -t 0.2525 -s 1 -d 2 -p cbr -e 210 -c 0 -i 45 -a 0 -x {1.0 3.0 14 ------- null}
h -t 0.2525 -s 1 -d 2 -p cbr -e 210 -c 0 -i 45 -a 0 -x {1.0 3.0 -1 ------- null}
r -t 0.2537668 -s 1 -d 2 -p cbr -e 210 -c 0 -i 43 -a 0 -x {1.0 3.0 13 ------- null}
+ -t 0.2537668 -s 2 -d 3 -p cbr -e 210 -c 0 -i 43 -a 0 -x {1.0 3.0 13 ------- null}
- -t 0.2538168 -s 2 -d 3 -p cbr -e 210 -c 0 -i 38 -a 0 -x {1.0 3.0 10 ------- null}
h -t 0.2538168 -s 2 -d 3 -p cbr -e 210 -c 0 -i 38 -a 0 -x {1.0 3.0 -1 ------- null}
+ -t 0.255 -s 0 -d 2 -p cbr -e 500 -c 0 -i 46 -a 0 -x {0.0 3.0 31 ------- null}
- -t 0.255 -s 0 -d 2 -p cbr -e 500 -c 0 -i 46 -a 0 -x {0.0 3.0 31 ------- null}
h -t 0.255 -s 0 -d 2 -p cbr -e 500 -c 0 -i 46 -a 0 -x {0.0 3.0 -1 ------- null}
r -t 0.25502 -s 0 -d 2 -p cbr -e 500 -c 0 -i 42 -a 0 -x {0.0 3.0 29 ------- null}
+ -t 0.25502 -s 2 -d 3 -p cbr -e 500 -c 0 -i 42 -a 0 -x {0.0 3.0 29 ------- null}
- -t 0.2554968 -s 2 -d 3 -p cbr -e 500 -c 0 -i 37 -a 0 -x {0.0 3.0 27 ------- null}
h -t 0.2554968 -s 2 -d 3 -p cbr -e 500 -c 0 -i 37 -a 0 -x {0.0 3.0 -1 ------- null}
+ -t 0.25625 -s 1 -d 2 -p cbr -e 210 -c 0 -i 47 -a 0 -x {1.0 3.0 15 ------- null}
- -t 0.25625 -s 1 -d 2 -p cbr -e 210 -c 0 -i 47 -a 0 -x {1.0 3.0 15 ------- null}
h -t 0.25625 -s 1 -d 2 -p cbr -e 210 -c 0 -i 47 -a 0 -x {1.0 3.0 -1 ------- null}
r -t 0.2575168 -s 1 -d 2 -p cbr -e 210 -c 0 -i 45 -a 0 -x {1.0 3.0 14 ------- null}
+ -t 0.2575168 -s 2 -d 3 -p cbr -e 210 -c 0 -i 45 -a 0 -x {1.0 3.0 14 ------- null}
- -t 0.2594968 -s 2 -d 3 -p cbr -e 210 -c 0 -i 40 -a 0 -x {1.0 3.0 11 ------- null}
h -t 0.2594968 -s 2 -d 3 -p cbr -e 210 -c 0 -i 40 -a 0 -x {1.0 3.0 -1 ------- null}
+ -t 0.26 -s 1 -d 2 -p cbr -e 210 -c 0 -i 48 -a 0 -x {1.0 3.0 16 ------- null}
- -t 0.26 -s 1 -d 2 -p cbr -e 210 -c 0 -i 48 -a 0 -x {1.0 3.0 16 ------- null}
h -t 0.26 -s 1 -d 2 -p cbr -e 210 -c 0 -i 48 -a 0 -x {1.0 3.0 -1 ------- null}
+ -t 0.26 -s 0 -d 2 -p cbr -e 500 -c 0 -i 49 -a 0 -x {0.0 3.0 32 ------- null}
- -t 0.26 -s 0 -d 2 -p cbr -e 500 -c 0 -i 49 -a 0 -x {0.0 3.0 32 ------- null}
h -t 0.26 -s 0 -d 2 -p cbr -e 500 -c 0 -i 49 -a 0 -x {0.0 3.0 -1 ------- null}
r -t 0.26002 -s 0 -d 2 -p cbr -e 500 -c 0 -i 44 -a 0 -x {0.0 3.0 30 ------- null}
+ -t 0.26002 -s 2 -d 3 -p cbr -e 500 -c 0 -i 44 -a 0 -x {0.0 3.0 30 ------- null}
- -t 0.2611768 -s 2 -d 3 -p cbr -e 210 -c 0 -i 41 -a 0 -x {1.0 3.0 12 ------- null}
h -t 0.2611768 -s 2 -d 3 -p cbr -e 210 -c 0 -i 41 -a 0 -x {1.0 3.0 -1 ------- null}
r -t 0.2612668 -s 1 -d 2 -p cbr -e 210 -c 0 -i 47 -a 0 -x {1.0 3.0 15 ------- null}
+ -t 0.2612668 -s 2 -d 3 -p cbr -e 210 -c 0 -i 47 -a 0 -x {1.0 3.0 15 ------- null}
- -t 0.2628568 -s 2 -d 3 -p cbr -e 500 -c 0 -i 39 -a 0 -x {0.0 3.0 28 ------- null}
h -t 0.2628568 -s 2 -d 3 -p cbr -e 500 -c 0 -i 39 -a 0 -x {0.0 3.0 -1 ------- null}
+ -t 0.26375 -s 1 -d 2 -p cbr -e 210 -c 0 -i 50 -a 0 -x {1.0 3.0 17 ------- null}
- -t 0.26375 -s 1 -d 2 -p cbr -e 210 -c 0 -i 50 -a 0 -x {1.0 3.0 17 ------- null}
h -t 0.26375 -s 1 -d 2 -p cbr -e 210 -c 0 -i 50 -a 0 -x {1.0 3.0 -1 ------- null}
+ -t 0.265 -s 0 -d 2 -p cbr -e 500 -c 0 -i 51 -a 0 -x {0.0 3.0 33 ------- null}
- -t 0.265 -s 0 -d 2 -p cbr -e 500 -c 0 -i 51 -a 0 -x {0.0 3.0 33 ------- null}
h -t 0.265 -s 0 -d 2 -p cbr -e 500 -c 0 -i 51 -a 0 -x {0.0 3.0 -1 ------- null}
r -t 0.2650168 -s 1 -d 2 -p cbr -e 210 -c 0 -i 48 -a 0 -x {1.0 3.0 16 ------- null}
+ -t 0.2650168 -s 2 -d 3 -p cbr -e 210 -c 0 -i 48 -a 0 -x {1.0 3.0 16 ------- null}
r -t 0.26502 -s 0 -d 2 -p cbr -e 500 -c 0 -i 46 -a 0 -x {0.0 3.0 31 ------- null}
+ -t 0.26502 -s 2 -d 3 -p cbr -e 500 -c 0 -i 46 -a 0 -x {0.0 3.0 31 ------- null}
- -t 0.2668568 -s 2 -d 3 -p cbr -e 210 -c 0 -i 43 -a 0 -x {1.0 3.0 13 ------- null}
h -t 0.2668568 -s 2 -d 3 -p cbr -e 210 -c 0 -i 43 -a 0 -x {1.0 3.0 -1 ------- null}
+ -t 0.2675 -s 1 -d 2 -p cbr -e 210 -c 0 -i 52 -a 0 -x {1.0 3.0 18 ------- null}
- -t 0.2675 -s 1 -d 2 -p cbr -e 210 -c 0 -i 52 -a 0 -x {1.0 3.0 18 ------- null}
h -t 0.2675 -s 1 -d 2 -p cbr -e 210 -c 0 -i 52 -a 0 -x {1.0 3.0 -1 ------- null}
- -t 0.2685368 -s 2 -d 3 -p cbr -e 500 -c 0 -i 42 -a 0 -x {0.0 3.0 29 ------- null}
h -t 0.2685368 -s 2 -d 3 -p cbr -e 500 -c 0 -i 42 -a 0 -x {0.0 3.0 -1 ------- null}
r -t 0.2687668 -s 1 -d 2 -p cbr -e 210 -c 0 -i 50 -a 0 -x {1.0 3.0 17 ------- null}
+ -t 0.2687668 -s 2 -d 3 -p cbr -e 210 -c 0 -i 50 -a 0 -x {1.0 3.0 17 ------- null}
+ -t 0.27 -s 0 -d 2 -p cbr -e 500 -c 0 -i 53 -a 0 -x {0.0 3.0 34 ------- null}
- -t 0.27 -s 0 -d 2 -p cbr -e 500 -c 0 -i 53 -a 0 -x {0.0 3.0 34 ------- null}
h -t 0.27 -s 0 -d 2 -p cbr -e 500 -c 0 -i 53 -a 0 -x {0.0 3.0 -1 ------- null}
r -t 0.27002 -s 0 -d 2 -p cbr -e 500 -c 0 -i 49 -a 0 -x {0.0 3.0 32 ------- null}
+ -t 0.27002 -s 2 -d 3 -p cbr -e 500 -c 0 -i 49 -a 0 -x {0.0 3.0 32 ------- null}
+ -t 0.27125 -s 1 -d 2 -p cbr -e 210 -c 0 -i 54 -a 0 -x {1.0 3.0 19 ------- null}
- -t 0.27125 -s 1 -d 2 -p cbr -e 210 -c 0 -i 54 -a 0 -x {1.0 3.0 19 ------- null}
h -t 0.27125 -s 1 -d 2 -p cbr -e 210 -c 0 -i 54 -a 0 -x {1.0 3.0 -1 ------- null}
r -t 0.2725168 -s 1 -d 2 -p cbr -e 210 -c 0 -i 52 -a 0 -x {1.0 3.0 18 ------- null}
+ -t 0.2725168 -s 2 -d 3 -p cbr -e 210 -c 0 -i 52 -a 0 -x {1.0 3.0 18 ------- null}
- -t 0.2725368 -s 2 -d 3 -p cbr -e 210 -c 0 -i 45 -a 0 -x {1.0 3.0 14 ------- null}
h -t 0.2725368 -s 2 -d 3 -p cbr -e 210 -c 0 -i 45 -a 0 -x {1.0 3.0 -1 ------- null}
- -t 0.2742168 -s 2 -d 3 -p cbr -e 500 -c 0 -i 44 -a 0 -x {0.0 3.0 30 ------- null}
h -t 0.2742168 -s 2 -d 3 -p cbr -e 500 -c 0 -i 44 -a 0 -x {0.0 3.0 -1 ------- null}
+ -t 0.275 -s 1 -d 2 -p cbr -e 210 -c 0 -i 55 -a 0 -x {1.0 3.0 20 ------- null}
- -t 0.275 -s 1 -d 2 -p cbr -e 210 -c 0 -i 55 -a 0 -x {1.0 3.0 20 ------- null}
h -t 0.275 -s 1 -d 2 -p cbr -e 210 -c 0 -i 55 -a 0 -x {1.0 3.0 -1 ------- null}